 TITLE = "DISTRIBUTION"
 VARIABLES = "X","Y","DISTRIBUTION"
 ZONE T="DISTRIBUTION"
 I=   41, J=   41, K=1, ZONETYPE=Ordered
 DATAPACKING=POINT
 DT=(DOUBLE DOUBLE DOUBLE )
  0.384533333333333E-01	  0.000000000000000E+00	  0.000000000000000E+00	
