 TITLE = "VECTOR FIELD"
 VARIABLES = "X","Y","SX","SY"
 ZONE T="VECTOR FIELD"
 I=  102, J=  102, K=1, ZONETYPE=Ordered
 DATAPACKING=BLOCK
 DT=(DOUBLE DOUBLE DOUBLE DOUBLE)
  7.246356028911993E-004
  7.246356028911993E-004
  7.246356028911993E-004
  7.246356028911993E-004
  7.246356028911993E-004
  7.246356028911993E-004
  7.246356028911993E-004
  7.246356028911993E-004
  7.246356028911993E-004
  7.246356028911993E-004
  7.246356028911993E-004
  7.246356028911993E-004
  7.246356028911993E-004
  7.246356028911993E-004
  7.246356028911993E-004
  7.246356028911993E-004
  7.246356028911993E-004
  7.246356028911993E-004
  7.246356028911993E-004
  7.246356028911993E-004
  7.246356028911993E-004
  7.246356028911993E-004
  7.246356028911993E-004
  7.246356028911993E-004
  7.246356028911993E-004
  7.246356028911993E-004
  7.246356028911993E-004
  7.246356028911993E-004
  7.246356028911993E-004
  7.246356028911993E-004
  7.246356028911993E-004
  7.246356028911993E-004
  7.246356028911993E-004
  7.246356028911993E-004
  7.246356028911993E-004
  7.246356028911993E-004
  7.246356028911993E-004
  7.246356028911993E-004
  7.246356028911993E-004
  7.246356028911993E-004
  7.246356028911993E-004
  7.246356028911993E-004
  7.246356028911993E-004
  7.246356028911993E-004
  7.246356028911993E-004
  7.246356028911993E-004
  7.246356028911993E-004
  7.246356028911993E-004
  7.246356028911993E-004
  7.246356028911993E-004
  7.246356028911993E-004
  7.246356028911993E-004
  7.246356028911993E-004
  7.246356028911993E-004
  7.246356028911993E-004
  7.246356028911993E-004
  7.246356028911993E-004
  7.246356028911993E-004
  7.246356028911993E-004
  7.246356028911993E-004
  7.246356028911993E-004
  7.246356028911993E-004
  7.246356028911993E-004
  7.246356028911993E-004
  7.246356028911993E-004
  7.246356028911993E-004
  7.246356028911993E-004
  7.246356028911993E-004
  7.246356028911993E-004
  7.246356028911993E-004
  7.246356028911993E-004
  7.246356028911993E-004
  7.246356028911993E-004
  7.246356028911993E-004
  7.246356028911993E-004
  7.246356028911993E-004
  7.246356028911993E-004
  7.246356028911993E-004
  7.246356028911993E-004
  7.246356028911993E-004
  7.246356028911993E-004
  7.246356028911993E-004
  7.246356028911993E-004
  7.246356028911993E-004
  7.246356028911993E-004
  7.246356028911993E-004
  7.246356028911993E-004
  7.246356028911993E-004
  7.246356028911993E-004
  7.246356028911993E-004
  7.246356028911993E-004
  7.246356028911993E-004
  7.246356028911993E-004
  7.246356028911993E-004
  7.246356028911993E-004
  7.246356028911993E-004
  7.246356028911993E-004
  7.246356028911993E-004
  7.246356028911993E-004
  7.246356028911993E-004
  7.246356028911993E-004
  7.246356028911993E-004
  6.781708613845985E-004
  6.786355087996645E-004
  6.795648036297965E-004
  6.804940984599286E-004
  6.814233932900606E-004
  6.823526881201926E-004
  6.832819829503246E-004
  6.842112777804566E-004
  6.851405726105886E-004
  6.860698674407207E-004
  6.869991622708527E-004
  6.879284571009846E-004
  6.888577519311167E-004
  6.897870467612487E-004
  6.907163415913807E-004
  6.916456364215128E-004
  6.925749312516448E-004
  6.935042260817767E-004
  6.944335209119088E-004
  6.953628157420408E-004
  6.962921105721728E-004
  6.972214054023049E-004
  6.981507002324368E-004
  6.990799950625688E-004
  7.000092898927009E-004
  7.009385847228329E-004
  7.018678795529649E-004
  7.027971743830970E-004
  7.037264692132289E-004
  7.046557640433609E-004
  7.055850588734930E-004
  7.065143537036250E-004
  7.074436485337570E-004
  7.083729433638890E-004
  7.093022381940210E-004
  7.102315330241530E-004
  7.111608278542851E-004
  7.120901226844171E-004
  7.130194175145490E-004
  7.139487123446811E-004
  7.148780071748131E-004
  7.158073020049451E-004
  7.167365968350772E-004
  7.176658916652092E-004
  7.185951864953411E-004
  7.195244813254732E-004
  7.204537761556052E-004
  7.213830709857372E-004
  7.223123658158693E-004
  7.232416606460012E-004
  7.241709554761332E-004
  7.251002503062653E-004
  7.260295451363973E-004
  7.269588399665293E-004
  7.278881347966613E-004
  7.288174296267933E-004
  7.297467244569253E-004
  7.306760192870574E-004
  7.316053141171894E-004
  7.325346089473214E-004
  7.334639037774534E-004
  7.343931986075854E-004
  7.353224934377174E-004
  7.362517882678495E-004
  7.371810830979815E-004
  7.381103779281134E-004
  7.390396727582455E-004
  7.399689675883775E-004
  7.408982624185095E-004
  7.418275572486416E-004
  7.427568520787735E-004
  7.436861469089055E-004
  7.446154417390376E-004
  7.455447365691696E-004
  7.464740313993016E-004
  7.474033262294337E-004
  7.483326210595656E-004
  7.492619158896976E-004
  7.501912107198297E-004
  7.511205055499617E-004
  7.520498003800937E-004
  7.529790952102257E-004
  7.539083900403577E-004
  7.548376848704897E-004
  7.557669797006218E-004
  7.566962745307538E-004
  7.576255693608857E-004
  7.585548641910178E-004
  7.594841590211498E-004
  7.604134538512818E-004
  7.613427486814139E-004
  7.622720435115459E-004
  7.632013383416778E-004
  7.641306331718099E-004
  7.650599280019419E-004
  7.659892228320739E-004
  7.669185176622060E-004
  7.678478124923379E-004
  7.687771073224699E-004
  7.697064021526020E-004
  7.706356969827340E-004
  7.711003443978000E-004
  6.445617496647500E-004
  6.453624881970144E-004
  6.469639652615434E-004
  6.485654423260724E-004
  6.501669193906014E-004
  6.517683964551304E-004
  6.533698735196594E-004
  6.549713505841884E-004
  6.565728276487174E-004
  6.581743047132464E-004
  6.597757817777754E-004
  6.613772588423042E-004
  6.629787359068333E-004
  6.645802129713622E-004
  6.661816900358912E-004
  6.677831671004202E-004
  6.693846441649492E-004
  6.709861212294782E-004
  6.725875982940072E-004
  6.741890753585362E-004
  6.757905524230652E-004
  6.773920294875942E-004
  6.789935065521232E-004
  6.805949836166522E-004
  6.821964606811812E-004
  6.837979377457102E-004
  6.853994148102391E-004
  6.870008918747681E-004
  6.886023689392970E-004
  6.902038460038260E-004
  6.918053230683550E-004
  6.934068001328840E-004
  6.950082771974130E-004
  6.966097542619420E-004
  6.982112313264710E-004
  6.998127083910000E-004
  7.014141854555290E-004
  7.030156625200580E-004
  7.046171395845869E-004
  7.062186166491159E-004
  7.078200937136449E-004
  7.094215707781739E-004
  7.110230478427029E-004
  7.126245249072319E-004
  7.142260019717609E-004
  7.158274790362898E-004
  7.174289561008188E-004
  7.190304331653478E-004
  7.206319102298768E-004
  7.222333872944058E-004
  7.238348643589348E-004
  7.254363414234637E-004
  7.270378184879927E-004
  7.286392955525217E-004
  7.302407726170507E-004
  7.318422496815797E-004
  7.334437267461087E-004
  7.350452038106377E-004
  7.366466808751667E-004
  7.382481579396957E-004
  7.398496350042247E-004
  7.414511120687537E-004
  7.430525891332826E-004
  7.446540661978116E-004
  7.462555432623405E-004
  7.478570203268695E-004
  7.494584973913985E-004
  7.510599744559275E-004
  7.526614515204565E-004
  7.542629285849855E-004
  7.558644056495145E-004
  7.574658827140435E-004
  7.590673597785725E-004
  7.606688368431015E-004
  7.622703139076305E-004
  7.638717909721595E-004
  7.654732680366884E-004
  7.670747451012173E-004
  7.686762221657463E-004
  7.702776992302753E-004
  7.718791762948043E-004
  7.734806533593333E-004
  7.750821304238623E-004
  7.766836074883913E-004
  7.782850845529203E-004
  7.798865616174493E-004
  7.814880386819783E-004
  7.830895157465073E-004
  7.846909928110363E-004
  7.862924698755652E-004
  7.878939469400943E-004
  7.894954240046232E-004
  7.910969010691522E-004
  7.926983781336812E-004
  7.942998551982101E-004
  7.959013322627391E-004
  7.975028093272681E-004
  7.991042863917971E-004
  8.007057634563261E-004
  8.023072405208551E-004
  8.039087175853841E-004
  8.047094561176486E-004
  6.217867872179322E-004
  6.228152753746648E-004
  6.248722516881301E-004
  6.269292280015955E-004
  6.289862043150609E-004
  6.310431806285262E-004
  6.331001569419915E-004
  6.351571332554568E-004
  6.372141095689222E-004
  6.392710858823875E-004
  6.413280621958529E-004
  6.433850385093182E-004
  6.454420148227836E-004
  6.474989911362489E-004
  6.495559674497142E-004
  6.516129437631796E-004
  6.536699200766449E-004
  6.557268963901103E-004
  6.577838727035756E-004
  6.598408490170410E-004
  6.618978253305062E-004
  6.639548016439716E-004
  6.660117779574370E-004
  6.680687542709023E-004
  6.701257305843677E-004
  6.721827068978330E-004
  6.742396832112984E-004
  6.762966595247637E-004
  6.783536358382291E-004
  6.804106121516944E-004
  6.824675884651597E-004
  6.845245647786251E-004
  6.865815410920904E-004
  6.886385174055558E-004
  6.906954937190211E-004
  6.927524700324865E-004
  6.948094463459517E-004
  6.968664226594171E-004
  6.989233989728825E-004
  7.009803752863478E-004
  7.030373515998132E-004
  7.050943279132785E-004
  7.071513042267439E-004
  7.092082805402091E-004
  7.112652568536745E-004
  7.133222331671399E-004
  7.153792094806052E-004
  7.174361857940706E-004
  7.194931621075359E-004
  7.215501384210013E-004
  7.236071147344666E-004
  7.256640910479319E-004
  7.277210673613972E-004
  7.297780436748626E-004
  7.318350199883280E-004
  7.338919963017933E-004
  7.359489726152587E-004
  7.380059489287240E-004
  7.400629252421894E-004
  7.421199015556546E-004
  7.441768778691200E-004
  7.462338541825853E-004
  7.482908304960507E-004
  7.503478068095161E-004
  7.524047831229814E-004
  7.544617594364468E-004
  7.565187357499120E-004
  7.585757120633774E-004
  7.606326883768427E-004
  7.626896646903081E-004
  7.647466410037735E-004
  7.668036173172388E-004
  7.688605936307042E-004
  7.709175699441694E-004
  7.729745462576348E-004
  7.750315225711001E-004
  7.770884988845655E-004
  7.791454751980308E-004
  7.812024515114962E-004
  7.832594278249616E-004
  7.853164041384269E-004
  7.873733804518923E-004
  7.894303567653575E-004
  7.914873330788229E-004
  7.935443093922882E-004
  7.956012857057536E-004
  7.976582620192190E-004
  7.997152383326843E-004
  8.017722146461497E-004
  8.038291909596149E-004
  8.058861672730803E-004
  8.079431435865456E-004
  8.100001199000110E-004
  8.120570962134763E-004
  8.141140725269417E-004
  8.161710488404071E-004
  8.182280251538723E-004
  8.202850014673377E-004
  8.223419777808030E-004
  8.243989540942684E-004
  8.264559304077337E-004
  8.274844185644664E-004
  6.035689148723084E-004
  6.047795817524974E-004
  6.072009155128752E-004
  6.096222492732530E-004
  6.120435830336308E-004
  6.144649167940087E-004
  6.168862505543865E-004
  6.193075843147643E-004
  6.217289180751421E-004
  6.241502518355199E-004
  6.265715855958976E-004
  6.289929193562754E-004
  6.314142531166534E-004
  6.338355868770311E-004
  6.362569206374089E-004
  6.386782543977867E-004
  6.410995881581645E-004
  6.435209219185424E-004
  6.459422556789202E-004
  6.483635894392980E-004
  6.507849231996758E-004
  6.532062569600536E-004
  6.556275907204315E-004
  6.580489244808093E-004
  6.604702582411871E-004
  6.628915920015649E-004
  6.653129257619427E-004
  6.677342595223205E-004
  6.701555932826983E-004
  6.725769270430762E-004
  6.749982608034540E-004
  6.774195945638318E-004
  6.798409283242096E-004
  6.822622620845874E-004
  6.846835958449653E-004
  6.871049296053431E-004
  6.895262633657209E-004
  6.919475971260987E-004
  6.943689308864765E-004
  6.967902646468543E-004
  6.992115984072322E-004
  7.016329321676100E-004
  7.040542659279878E-004
  7.064755996883656E-004
  7.088969334487434E-004
  7.113182672091213E-004
  7.137396009694991E-004
  7.161609347298769E-004
  7.185822684902547E-004
  7.210036022506325E-004
  7.234249360110103E-004
  7.258462697713882E-004
  7.282676035317660E-004
  7.306889372921438E-004
  7.331102710525216E-004
  7.355316048128994E-004
  7.379529385732772E-004
  7.403742723336551E-004
  7.427956060940329E-004
  7.452169398544107E-004
  7.476382736147885E-004
  7.500596073751663E-004
  7.524809411355442E-004
  7.549022748959220E-004
  7.573236086562998E-004
  7.597449424166776E-004
  7.621662761770554E-004
  7.645876099374332E-004
  7.670089436978111E-004
  7.694302774581889E-004
  7.718516112185667E-004
  7.742729449789445E-004
  7.766942787393223E-004
  7.791156124997002E-004
  7.815369462600780E-004
  7.839582800204558E-004
  7.863796137808336E-004
  7.888009475412114E-004
  7.912222813015892E-004
  7.936436150619670E-004
  7.960649488223449E-004
  7.984862825827227E-004
  8.009076163431005E-004
  8.033289501034783E-004
  8.057502838638561E-004
  8.081716176242340E-004
  8.105929513846118E-004
  8.130142851449896E-004
  8.154356189053674E-004
  8.178569526657452E-004
  8.202782864261231E-004
  8.226996201865009E-004
  8.251209539468787E-004
  8.275422877072565E-004
  8.299636214676343E-004
  8.323849552280121E-004
  8.348062889883899E-004
  8.372276227487678E-004
  8.396489565091456E-004
  8.420702902695234E-004
  8.444916240299012E-004
  8.457022909100901E-004
  5.880720127291790E-004
  5.894376486307992E-004
  5.921689204340395E-004
  5.949001922372800E-004
  5.976314640405204E-004
  6.003627358437608E-004
  6.030940076470012E-004
  6.058252794502416E-004
  6.085565512534820E-004
  6.112878230567225E-004
  6.140190948599628E-004
  6.167503666632033E-004
  6.194816384664436E-004
  6.222129102696841E-004
  6.249441820729244E-004
  6.276754538761648E-004
  6.304067256794053E-004
  6.331379974826457E-004
  6.358692692858861E-004
  6.386005410891264E-004
  6.413318128923669E-004
  6.440630846956072E-004
  6.467943564988477E-004
  6.495256283020881E-004
  6.522569001053285E-004
  6.549881719085689E-004
  6.577194437118093E-004
  6.604507155150497E-004
  6.631819873182902E-004
  6.659132591215305E-004
  6.686445309247710E-004
  6.713758027280113E-004
  6.741070745312518E-004
  6.768383463344921E-004
  6.795696181377326E-004
  6.823008899409730E-004
  6.850321617442134E-004
  6.877634335474538E-004
  6.904947053506942E-004
  6.932259771539346E-004
  6.959572489571749E-004
  6.986885207604154E-004
  7.014197925636558E-004
  7.041510643668962E-004
  7.068823361701366E-004
  7.096136079733770E-004
  7.123448797766174E-004
  7.150761515798579E-004
  7.178074233830982E-004
  7.205386951863387E-004
  7.232699669895790E-004
  7.260012387928195E-004
  7.287325105960598E-004
  7.314637823993003E-004
  7.341950542025407E-004
  7.369263260057811E-004
  7.396575978090215E-004
  7.423888696122619E-004
  7.451201414155023E-004
  7.478514132187428E-004
  7.505826850219831E-004
  7.533139568252236E-004
  7.560452286284639E-004
  7.587765004317043E-004
  7.615077722349447E-004
  7.642390440381851E-004
  7.669703158414256E-004
  7.697015876446659E-004
  7.724328594479064E-004
  7.751641312511467E-004
  7.778954030543872E-004
  7.806266748576275E-004
  7.833579466608680E-004
  7.860892184641084E-004
  7.888204902673488E-004
  7.915517620705892E-004
  7.942830338738296E-004
  7.970143056770700E-004
  7.997455774803105E-004
  8.024768492835508E-004
  8.052081210867913E-004
  8.079393928900316E-004
  8.106706646932721E-004
  8.134019364965124E-004
  8.161332082997528E-004
  8.188644801029933E-004
  8.215957519062337E-004
  8.243270237094741E-004
  8.270582955127144E-004
  8.297895673159549E-004
  8.325208391191952E-004
  8.352521109224357E-004
  8.379833827256761E-004
  8.407146545289165E-004
  8.434459263321569E-004
  8.461771981353973E-004
  8.489084699386377E-004
  8.516397417418782E-004
  8.543710135451185E-004
  8.571022853483590E-004
  8.598335571515993E-004
  8.611991930532196E-004
  5.744514075988049E-004
  5.759532495517288E-004
  5.789569334575767E-004
  5.819606173634246E-004
  5.849643012692724E-004
  5.879679851751203E-004
  5.909716690809682E-004
  5.939753529868161E-004
  5.969790368926639E-004
  5.999827207985119E-004
  6.029864047043598E-004
  6.059900886102076E-004
  6.089937725160555E-004
  6.119974564219034E-004
  6.150011403277514E-004
  6.180048242335992E-004
  6.210085081394471E-004
  6.240121920452950E-004
  6.270158759511429E-004
  6.300195598569907E-004
  6.330232437628386E-004
  6.360269276686865E-004
  6.390306115745345E-004
  6.420342954803823E-004
  6.450379793862302E-004
  6.480416632920781E-004
  6.510453471979260E-004
  6.540490311037739E-004
  6.570527150096218E-004
  6.600563989154697E-004
  6.630600828213176E-004
  6.660637667271654E-004
  6.690674506330133E-004
  6.720711345388612E-004
  6.750748184447091E-004
  6.780785023505570E-004
  6.810821862564049E-004
  6.840858701622528E-004
  6.870895540681006E-004
  6.900932379739485E-004
  6.930969218797964E-004
  6.961006057856444E-004
  6.991042896914922E-004
  7.021079735973401E-004
  7.051116575031880E-004
  7.081153414090359E-004
  7.111190253148837E-004
  7.141227092207316E-004
  7.171263931265796E-004
  7.201300770324275E-004
  7.231337609382753E-004
  7.261374448441232E-004
  7.291411287499711E-004
  7.321448126558189E-004
  7.351484965616669E-004
  7.381521804675148E-004
  7.411558643733627E-004
  7.441595482792105E-004
  7.471632321850584E-004
  7.501669160909063E-004
  7.531705999967542E-004
  7.561742839026021E-004
  7.591779678084500E-004
  7.621816517142979E-004
  7.651853356201458E-004
  7.681890195259936E-004
  7.711927034318415E-004
  7.741963873376894E-004
  7.772000712435374E-004
  7.802037551493852E-004
  7.832074390552331E-004
  7.862111229610810E-004
  7.892148068669288E-004
  7.922184907727767E-004
  7.952221746786246E-004
  7.982258585844726E-004
  8.012295424903204E-004
  8.042332263961683E-004
  8.072369103020162E-004
  8.102405942078641E-004
  8.132442781137120E-004
  8.162479620195599E-004
  8.192516459254078E-004
  8.222553298312557E-004
  8.252590137371035E-004
  8.282626976429514E-004
  8.312663815487993E-004
  8.342700654546471E-004
  8.372737493604951E-004
  8.402774332663430E-004
  8.432811171721909E-004
  8.462848010780387E-004
  8.492884849838866E-004
  8.522921688897346E-004
  8.552958527955825E-004
  8.582995367014303E-004
  8.613032206072782E-004
  8.643069045131261E-004
  8.673105884189740E-004
  8.703142723248218E-004
  8.733179562306697E-004
  8.748197981835936E-004
  5.622343158860929E-004
  5.638583287561440E-004
  5.671063544962461E-004
  5.703543802363482E-004
  5.736024059764504E-004
  5.768504317165525E-004
  5.800984574566546E-004
  5.833464831967567E-004
  5.865945089368589E-004
  5.898425346769611E-004
  5.930905604170631E-004
  5.963385861571652E-004
  5.995866118972674E-004
  6.028346376373695E-004
  6.060826633774716E-004
  6.093306891175737E-004
  6.125787148576759E-004
  6.158267405977780E-004
  6.190747663378801E-004
  6.223227920779822E-004
  6.255708178180844E-004
  6.288188435581865E-004
  6.320668692982887E-004
  6.353148950383907E-004
  6.385629207784929E-004
  6.418109465185950E-004
  6.450589722586972E-004
  6.483069979987992E-004
  6.515550237389014E-004
  6.548030494790035E-004
  6.580510752191057E-004
  6.612991009592077E-004
  6.645471266993099E-004
  6.677951524394120E-004
  6.710431781795142E-004
  6.742912039196163E-004
  6.775392296597184E-004
  6.807872553998205E-004
  6.840352811399227E-004
  6.872833068800248E-004
  6.905313326201270E-004
  6.937793583602290E-004
  6.970273841003312E-004
  7.002754098404333E-004
  7.035234355805355E-004
  7.067714613206375E-004
  7.100194870607397E-004
  7.132675128008418E-004
  7.165155385409440E-004
  7.197635642810460E-004
  7.230115900211482E-004
  7.262596157612503E-004
  7.295076415013525E-004
  7.327556672414546E-004
  7.360036929815567E-004
  7.392517187216588E-004
  7.424997444617610E-004
  7.457477702018631E-004
  7.489957959419652E-004
  7.522438216820673E-004
  7.554918474221695E-004
  7.587398731622716E-004
  7.619878989023738E-004
  7.652359246424758E-004
  7.684839503825780E-004
  7.717319761226801E-004
  7.749800018627823E-004
  7.782280276028843E-004
  7.814760533429865E-004
  7.847240790830886E-004
  7.879721048231908E-004
  7.912201305632928E-004
  7.944681563033950E-004
  7.977161820434971E-004
  8.009642077835993E-004
  8.042122335237014E-004
  8.074602592638035E-004
  8.107082850039056E-004
  8.139563107440078E-004
  8.172043364841099E-004
  8.204523622242120E-004
  8.237003879643141E-004
  8.269484137044163E-004
  8.301964394445184E-004
  8.334444651846206E-004
  8.366924909247226E-004
  8.399405166648248E-004
  8.431885424049269E-004
  8.464365681450291E-004
  8.496845938851311E-004
  8.529326196252333E-004
  8.561806453653354E-004
  8.594286711054375E-004
  8.626766968455397E-004
  8.659247225856418E-004
  8.691727483257439E-004
  8.724207740658460E-004
  8.756687998059482E-004
  8.789168255460503E-004
  8.821648512861524E-004
  8.854128770262545E-004
  8.870368898963056E-004
  5.511240163218500E-004
  5.528591321875434E-004
  5.563293639189304E-004
  5.597995956503174E-004
  5.632698273817043E-004
  5.667400591130914E-004
  5.702102908444783E-004
  5.736805225758653E-004
  5.771507543072523E-004
  5.806209860386393E-004
  5.840912177700263E-004
  5.875614495014133E-004
  5.910316812328003E-004
  5.945019129641872E-004
  5.979721446955742E-004
  6.014423764269612E-004
  6.049126081583482E-004
  6.083828398897352E-004
  6.118530716211222E-004
  6.153233033525092E-004
  6.187935350838961E-004
  6.222637668152831E-004
  6.257339985466701E-004
  6.292042302780571E-004
  6.326744620094441E-004
  6.361446937408311E-004
  6.396149254722181E-004
  6.430851572036051E-004
  6.465553889349921E-004
  6.500256206663790E-004
  6.534958523977660E-004
  6.569660841291530E-004
  6.604363158605400E-004
  6.639065475919270E-004
  6.673767793233140E-004
  6.708470110547010E-004
  6.743172427860879E-004
  6.777874745174749E-004
  6.812577062488619E-004
  6.847279379802489E-004
  6.881981697116359E-004
  6.916684014430229E-004
  6.951386331744099E-004
  6.986088649057968E-004
  7.020790966371838E-004
  7.055493283685708E-004
  7.090195600999578E-004
  7.124897918313448E-004
  7.159600235627318E-004
  7.194302552941188E-004
  7.229004870255058E-004
  7.263707187568927E-004
  7.298409504882797E-004
  7.333111822196667E-004
  7.367814139510537E-004
  7.402516456824407E-004
  7.437218774138277E-004
  7.471921091452147E-004
  7.506623408766017E-004
  7.541325726079886E-004
  7.576028043393756E-004
  7.610730360707626E-004
  7.645432678021496E-004
  7.680134995335366E-004
  7.714837312649236E-004
  7.749539629963106E-004
  7.784241947276975E-004
  7.818944264590845E-004
  7.853646581904715E-004
  7.888348899218585E-004
  7.923051216532455E-004
  7.957753533846325E-004
  7.992455851160195E-004
  8.027158168474064E-004
  8.061860485787934E-004
  8.096562803101804E-004
  8.131265120415674E-004
  8.165967437729544E-004
  8.200669755043414E-004
  8.235372072357284E-004
  8.270074389671154E-004
  8.304776706985024E-004
  8.339479024298893E-004
  8.374181341612763E-004
  8.408883658926633E-004
  8.443585976240503E-004
  8.478288293554373E-004
  8.512990610868243E-004
  8.547692928182113E-004
  8.582395245495982E-004
  8.617097562809852E-004
  8.651799880123722E-004
  8.686502197437592E-004
  8.721204514751462E-004
  8.755906832065332E-004
  8.790609149379202E-004
  8.825311466693071E-004
  8.860013784006942E-004
  8.894716101320811E-004
  8.929418418634681E-004
  8.964120735948551E-004
  8.981471894605486E-004
  5.409195979424804E-004
  5.427567579919675E-004
  5.464310780909419E-004
  5.501053981899163E-004
  5.537797182888907E-004
  5.574540383878651E-004
  5.611283584868394E-004
  5.648026785858138E-004
  5.684769986847882E-004
  5.721513187837625E-004
  5.758256388827369E-004
  5.794999589817113E-004
  5.831742790806858E-004
  5.868485991796602E-004
  5.905229192786345E-004
  5.941972393776089E-004
  5.978715594765833E-004
  6.015458795755576E-004
  6.052201996745320E-004
  6.088945197735064E-004
  6.125688398724808E-004
  6.162431599714552E-004
  6.199174800704295E-004
  6.235918001694039E-004
  6.272661202683783E-004
  6.309404403673526E-004
  6.346147604663270E-004
  6.382890805653014E-004
  6.419634006642758E-004
  6.456377207632502E-004
  6.493120408622245E-004
  6.529863609611989E-004
  6.566606810601733E-004
  6.603350011591476E-004
  6.640093212581220E-004
  6.676836413570964E-004
  6.713579614560708E-004
  6.750322815550451E-004
  6.787066016540195E-004
  6.823809217529939E-004
  6.860552418519683E-004
  6.897295619509426E-004
  6.934038820499170E-004
  6.970782021488914E-004
  7.007525222478658E-004
  7.044268423468401E-004
  7.081011624458145E-004
  7.117754825447890E-004
  7.154498026437634E-004
  7.191241227427377E-004
  7.227984428417121E-004
  7.264727629406865E-004
  7.301470830396609E-004
  7.338214031386352E-004
  7.374957232376096E-004
  7.411700433365840E-004
  7.448443634355584E-004
  7.485186835345327E-004
  7.521930036335071E-004
  7.558673237324815E-004
  7.595416438314559E-004
  7.632159639304302E-004
  7.668902840294046E-004
  7.705646041283790E-004
  7.742389242273534E-004
  7.779132443263277E-004
  7.815875644253021E-004
  7.852618845242765E-004
  7.889362046232509E-004
  7.926105247222252E-004
  7.962848448211996E-004
  7.999591649201740E-004
  8.036334850191483E-004
  8.073078051181227E-004
  8.109821252170971E-004
  8.146564453160715E-004
  8.183307654150459E-004
  8.220050855140202E-004
  8.256794056129946E-004
  8.293537257119690E-004
  8.330280458109433E-004
  8.367023659099177E-004
  8.403766860088922E-004
  8.440510061078666E-004
  8.477253262068410E-004
  8.513996463058153E-004
  8.550739664047897E-004
  8.587482865037641E-004
  8.624226066027384E-004
  8.660969267017128E-004
  8.697712468006872E-004
  8.734455668996616E-004
  8.771198869986360E-004
  8.807942070976103E-004
  8.844685271965847E-004
  8.881428472955591E-004
  8.918171673945334E-004
  8.954914874935078E-004
  8.991658075924822E-004
  9.028401276914566E-004
  9.065144477904310E-004
  9.083516078399181E-004
  5.314774360371166E-004
  5.334090177056575E-004
  5.372721810427391E-004
  5.411353443798208E-004
  5.449985077169025E-004
  5.488616710539841E-004
  5.527248343910657E-004
  5.565879977281474E-004
  5.604511610652291E-004
  5.643143244023107E-004
  5.681774877393923E-004
  5.720406510764740E-004
  5.759038144135557E-004
  5.797669777506373E-004
  5.836301410877189E-004
  5.874933044248006E-004
  5.913564677618823E-004
  5.952196310989639E-004
  5.990827944360455E-004
  6.029459577731272E-004
  6.068091211102089E-004
  6.106722844472905E-004
  6.145354477843721E-004
  6.183986111214538E-004
  6.222617744585355E-004
  6.261249377956171E-004
  6.299881011326987E-004
  6.338512644697804E-004
  6.377144278068620E-004
  6.415775911439437E-004
  6.454407544810253E-004
  6.493039178181071E-004
  6.531670811551887E-004
  6.570302444922704E-004
  6.608934078293520E-004
  6.647565711664337E-004
  6.686197345035153E-004
  6.724828978405970E-004
  6.763460611776786E-004
  6.802092245147603E-004
  6.840723878518419E-004
  6.879355511889236E-004
  6.917987145260052E-004
  6.956618778630869E-004
  6.995250412001685E-004
  7.033882045372502E-004
  7.072513678743318E-004
  7.111145312114135E-004
  7.149776945484951E-004
  7.188408578855768E-004
  7.227040212226584E-004
  7.265671845597401E-004
  7.304303478968217E-004
  7.342935112339034E-004
  7.381566745709850E-004
  7.420198379080667E-004
  7.458830012451483E-004
  7.497461645822300E-004
  7.536093279193116E-004
  7.574724912563933E-004
  7.613356545934749E-004
  7.651988179305566E-004
  7.690619812676382E-004
  7.729251446047200E-004
  7.767883079418016E-004
  7.806514712788833E-004
  7.845146346159649E-004
  7.883777979530466E-004
  7.922409612901282E-004
  7.961041246272099E-004
  7.999672879642915E-004
  8.038304513013732E-004
  8.076936146384548E-004
  8.115567779755365E-004
  8.154199413126181E-004
  8.192831046496998E-004
  8.231462679867814E-004
  8.270094313238630E-004
  8.308725946609447E-004
  8.347357579980264E-004
  8.385989213351080E-004
  8.424620846721896E-004
  8.463252480092713E-004
  8.501884113463530E-004
  8.540515746834346E-004
  8.579147380205162E-004
  8.617779013575979E-004
  8.656410646946796E-004
  8.695042280317612E-004
  8.733673913688428E-004
  8.772305547059245E-004
  8.810937180430062E-004
  8.849568813800878E-004
  8.888200447171694E-004
  8.926832080542511E-004
  8.965463713913329E-004
  9.004095347284145E-004
  9.042726980654961E-004
  9.081358614025778E-004
  9.119990247396595E-004
  9.158621880767411E-004
  9.177937697452819E-004
  5.226905818628298E-004
  5.247100320731135E-004
  5.287489324936809E-004
  5.327878329142483E-004
  5.368267333348156E-004
  5.408656337553831E-004
  5.449045341759505E-004
  5.489434345965178E-004
  5.529823350170853E-004
  5.570212354376527E-004
  5.610601358582200E-004
  5.650990362787874E-004
  5.691379366993547E-004
  5.731768371199222E-004
  5.772157375404896E-004
  5.812546379610569E-004
  5.852935383816244E-004
  5.893324388021918E-004
  5.933713392227591E-004
  5.974102396433265E-004
  6.014491400638939E-004
  6.054880404844613E-004
  6.095269409050287E-004
  6.135658413255960E-004
  6.176047417461634E-004